# 3D starting configuration for LAMMPS created with a script available at# https://gitlab.com/catnat/ipc_brownian_motion

         3 atoms
         2 bonds
         1 angles

         2 atom types
         1 bond types
         1 angle types

       0.0000000   15.000000  xlo xhi
       0.0000000   15.000000  ylo yhi
       0.0000000   15.000000  zlo zhi

Masses
# atom type     mass
         1       2.0
         2       0.5

Atoms
# atom-ID mol-ID atom-type charge    x               y               z
         1    1    1      0.0      0.69277821      0.71833643      0.67982348
         2    1    2      0.0      0.96205504      0.84191828      0.80072639
         3    1    2      0.0      0.42350138      0.59475457      0.55892056

Bonds
#  ID bond-type atom-1 atom-2
         1    1    1    2
         2    1    1    3

Angles
# ID    angle-type atom-1 atom-2 atom-3  (atom-2 is the center atom in angle)
         1    1    2    1    3
