# 3D starting configuration for LAMMPS created with a script available at# https://gitlab.com/catnat/ipc_brownian_motion

              81 atoms
              54 bonds
              27 angles

               2 atom types
               1 bond types
               1 angle types

      0.00000000      4.48140475     xlo xhi
      0.00000000      4.48140475     ylo yhi
      0.00000000      4.48140475     zlo zhi

Masses
#  atomtype, mass
         1       2.0
         2       0.5

Atoms
#  atom-ID mol-ID atom-type charge    x               y               z
         1         1         1      -1.0      0.81377345      0.85159651      0.89431715
         2         1         2       0.5      0.92363642      1.02108036      0.98152582
         3         1         2       0.5      0.70391049      0.68211265      0.80710848
         4         2         1      -1.0      2.26057054      0.88366274      0.89370751
         5         2         2       0.5      2.45105596      0.93535541      0.99088350
         6         2         2       0.5      2.07008512      0.83197007      0.79653151
         7         3         1      -1.0      3.74664773      0.89541414      0.80395540
         8         3         2       0.5      3.86989117      1.06203394      0.87777203
         9         3         2       0.5      3.62340430      0.72879433      0.73013877
        10         4         1      -1.0      0.77939505      2.26691854      0.83250933
        11         4         2       0.5      0.95870310      2.39414630      0.84036534
        12         4         2       0.5      0.60008699      2.13969077      0.82465331
        13         5         1      -1.0      2.27576687      2.26048221      0.81651071
        14         5         2       0.5      2.45856331      2.28611681      0.93621171
        15         5         2       0.5      2.09297043      2.23484761      0.69680971
        16         6         1      -1.0      3.73681475      2.36349167      0.77906801
        17         6         2       0.5      3.90303532      2.37695195      0.92255858
        18         6         2       0.5      3.57059418      2.35003138      0.63557744
        19         7         1      -1.0      0.86905485      3.78981779      0.81376231
        20         7         2       0.5      0.95967132      3.89631518      0.98360623
        21         7         2       0.5      0.77843837      3.68332040      0.64391838
        22         8         1      -1.0      2.33977221      3.82994218      0.81215164
        23         8         2       0.5      2.55175479      3.84887221      0.86787450
        24         8         2       0.5      2.12778962      3.81101215      0.75642878
        25         9         1      -1.0      3.75568927      3.85339042      0.82513055
        26         9         2       0.5      3.78182619      4.01244802      0.97485544
        27         9         2       0.5      3.72955236      3.69433283      0.67540566
        28        10         1      -1.0      0.88859416      0.84140194      2.29186485
        29        10         2       0.5      0.97339063      0.99952156      2.41917449
        30        10         2       0.5      0.80379769      0.68328232      2.16455521
        31        11         1      -1.0      2.38303029      0.84231923      2.28741749
        32        11         2       0.5      2.41508924      0.85010226      2.50492990
        33        11         2       0.5      2.35097134      0.83453620      2.06990508
        34        12         1      -1.0      3.83417031      0.75015252      2.27247150
        35        12         2       0.5      3.96113538      0.92800795      2.29791392
        36        12         2       0.5      3.70720523      0.57229710      2.24702907
        37        13         1      -1.0      0.82929096      2.28183913      2.31374673
        38        13         2       0.5      0.87913244      2.45830786      2.43529759
        39        13         2       0.5      0.77944947      2.10537039      2.19219588
        40        14         1      -1.0      2.28732993      2.36229560      2.35990106
        41        14         2       0.5      2.43024940      2.48078136      2.47794829
        42        14         2       0.5      2.14441045      2.24380984      2.24185383
        43        15         1      -1.0      3.81851343      2.27422657      2.27434373
        44        15         2       0.5      3.92586057      2.41102528      2.40911281
        45        15         2       0.5      3.71116629      2.13742786      2.13957465
        46        16         1      -1.0      0.87101134      3.86388460      2.28202455
        47        16         2       0.5      0.96112040      3.99314461      2.43555699
        48        16         2       0.5      0.78090228      3.73462459      2.12849212
        49        17         1      -1.0      2.38053064      3.74268850      2.37226442
        50        17         2       0.5      2.48267653      3.92900241      2.42930252
        51        17         2       0.5      2.27838476      3.55637459      2.31522632
        52        18         1      -1.0      3.75308604      3.85050516      2.34483151
        53        18         2       0.5      3.91444049      3.99525293      2.38241908
        54        18         2       0.5      3.59173159      3.70575739      2.30724393
        55        19         1      -1.0      0.74915009      0.81286440      3.85557242
        56        19         2       0.5      0.79512993      1.02489597      3.89202057
        57        19         2       0.5      0.70317026      0.60083283      3.81912426
        58        20         1      -1.0      2.27166944      0.77667255      3.78367216
        59        20         2       0.5      2.36159496      0.83922967      3.97446002
        60        20         2       0.5      2.18174392      0.71411542      3.59288430
        61        21         1      -1.0      3.84178300      0.88445005      3.86084855
        62        21         2       0.5      3.98254951      0.99978230      3.98447403
        63        21         2       0.5      3.70101649      0.76911779      3.73722307
        64        22         1      -1.0      0.78333394      2.27790930      3.81709793
        65        22         2       0.5      0.96260905      2.34099070      3.92791840
        66        22         2       0.5      0.60405884      2.21482791      3.70627747
        67        23         1      -1.0      2.29983152      2.27905186      3.84582579
        68        23         2       0.5      2.43810395      2.44972234      3.85816768
        69        23         2       0.5      2.16155909      2.10838138      3.83348391
        70        24         1      -1.0      3.75563917      2.30115518      3.85637732
        71        24         2       0.5      3.85619770      2.42006744      4.01177313
        72        24         2       0.5      3.65508065      2.18224293      3.70098151
        73        25         1      -1.0      0.83619849      3.80874879      3.81062237
        74        25         2       0.5      0.97102869      3.98220121      3.82224449
        75        25         2       0.5      0.70136829      3.63529637      3.79900025
        76        26         1      -1.0      2.27240039      3.73646627      3.87753716
        77        26         2       0.5      2.31964304      3.91612567      3.99539570
        78        26         2       0.5      2.22515773      3.55680688      3.75967863
        79        27         1      -1.0      3.76826709      3.83593908      3.81225712
        80        27         2       0.5      3.94032113      3.97076098      3.83716621
        81        27         2       0.5      3.59621305      3.70111718      3.78734803

Bonds
#  ID bond-type atom-1 atom-2
         1         1         1         2
         2         1         1         3
         3         1         4         5
         4         1         4         6
         5         1         7         8
         6         1         7         9
         7         1        10        11
         8         1        10        12
         9         1        13        14
        10         1        13        15
        11         1        16        17
        12         1        16        18
        13         1        19        20
        14         1        19        21
        15         1        22        23
        16         1        22        24
        17         1        25        26
        18         1        25        27
        19         1        28        29
        20         1        28        30
        21         1        31        32
        22         1        31        33
        23         1        34        35
        24         1        34        36
        25         1        37        38
        26         1        37        39
        27         1        40        41
        28         1        40        42
        29         1        43        44
        30         1        43        45
        31         1        46        47
        32         1        46        48
        33         1        49        50
        34         1        49        51
        35         1        52        53
        36         1        52        54
        37         1        55        56
        38         1        55        57
        39         1        58        59
        40         1        58        60
        41         1        61        62
        42         1        61        63
        43         1        64        65
        44         1        64        66
        45         1        67        68
        46         1        67        69
        47         1        70        71
        48         1        70        72
        49         1        73        74
        50         1        73        75
        51         1        76        77
        52         1        76        78
        53         1        79        80
        54         1        79        81

Angles
#  ID    angle-type atom-1 atom-2 atom-3  (atom-2 is the center atom in angle)
         1         1         2         1         3
         2         1         5         4         6
         3         1         8         7         9
         4         1        11        10        12
         5         1        14        13        15
         6         1        17        16        18
         7         1        20        19        21
         8         1        23        22        24
         9         1        26        25        27
        10         1        29        28        30
        11         1        32        31        33
        12         1        35        34        36
        13         1        38        37        39
        14         1        41        40        42
        15         1        44        43        45
        16         1        47        46        48
        17         1        50        49        51
        18         1        53        52        54
        19         1        56        55        57
        20         1        59        58        60
        21         1        62        61        63
        22         1        65        64        66
        23         1        68        67        69
        24         1        71        70        72
        25         1        74        73        75
        26         1        77        76        78
        27         1        80        79        81
