# 3D starting configuration for LAMMPS created with a script available at# https://gitlab.com/catnat/ipc_brownian_motion

            3000 atoms
            2000 bonds
            1000 angles

               2 atom types
               1 bond types
               1 angle types

      0.00000000     12.20522444     xlo xhi
      0.00000000     12.20522444     ylo yhi
      0.00000000     12.20522444     zlo zhi

Masses
#  atomtype, mass
         1       2.0
         2       0.5

Atoms
#  atom-ID mol-ID atom-type charge    x               y               z
         1         1         1      -1.0      0.65825139      0.72382710      0.70303691
         2         1         2       0.5      0.76639661      0.91348745      0.73012127
         3         1         2       0.5      0.55010617      0.53416675      0.67595256
         4         2         1      -1.0      1.89403712      0.66697785      0.72814397
         5         2         2       0.5      2.02805478      0.77747289      0.86316291
         6         2         2       0.5      1.76001947      0.55648281      0.59312503
         7         3         1      -1.0      3.16764935      0.71492137      0.67745291
         8         3         2       0.5      3.23739937      0.91719035      0.72866026
         9         3         2       0.5      3.09789933      0.51265239      0.62624556
        10         4         1      -1.0      4.33466976      0.65619834      0.62778122
        11         4         2       0.5      4.34151203      0.66353167      0.84755248
        12         4         2       0.5      4.32782750      0.64886501      0.40800996
        13         5         1      -1.0      5.53131867      0.63139346      0.71580446
        14         5         2       0.5      5.57597545      0.84060855      0.76713494
        15         5         2       0.5      5.48666189      0.42217837      0.66447397
        16         6         1      -1.0      6.76584446      0.71137113      0.66242198
        17         6         2       0.5      6.90250559      0.81131143      0.80290568
        18         6         2       0.5      6.62918334      0.61143082      0.52193828
        19         7         1      -1.0      7.97999049      0.63712794      0.63836805
        20         7         2       0.5      8.03886632      0.70851083      0.83796294
        21         7         2       0.5      7.92111465      0.56574505      0.43877316
        22         8         1      -1.0      9.20950087      0.66274592      0.66046025
        23         8         2       0.5      9.36792290      0.70052304      0.80836342
        24         8         2       0.5      9.05107883      0.62496881      0.51255707
        25         9         1      -1.0     10.39697284      0.69958574      0.69584442
        26         9         2       0.5     10.52408334      0.87283871      0.74302841
        27         9         2       0.5     10.26986233      0.52633277      0.64866044
        28        10         1      -1.0     11.70539658      0.62115817      0.72246939
        29        10         2       0.5     11.80594201      0.66398614      0.91340494
        30        10         2       0.5     11.60485116      0.57833020      0.53153385
        31        11         1      -1.0      0.65200445      1.83916385      0.70060103
        32        11         2       0.5      0.81271993      1.97735663      0.75953563
        33        11         2       0.5      0.49128896      1.70097106      0.64166644
        34        12         1      -1.0      1.91921448      1.93830087      0.61342604
        35        12         2       0.5      1.94530989      1.94444321      0.83178653
        36        12         2       0.5      1.89311908      1.93215853      0.39506556
        37        13         1      -1.0      3.11069668      1.91728509      0.65160692
        38        13         2       0.5      3.31284268      1.92665759      0.73791538
        39        13         2       0.5      2.90855068      1.90791258      0.56529847
        40        14         1      -1.0      4.38947144      1.94759340      0.72135958
        41        14         2       0.5      4.39280393      2.13281434      0.84002760
        42        14         2       0.5      4.38613895      1.76237247      0.60269156
        43        15         1      -1.0      5.53246709      1.87769971      0.67301038
        44        15         2       0.5      5.69945792      1.96950071      0.78294963
        45        15         2       0.5      5.36547627      1.78589871      0.56307112
        46        16         1      -1.0      6.83201441      1.84129355      0.61396375
        47        16         2       0.5      6.87255582      1.91093070      0.81867589
        48        16         2       0.5      6.79147300      1.77165640      0.40925160
        49        17         1      -1.0      7.93357003      1.95272644      0.66812231
        50        17         2       0.5      8.11492193      2.00984730      0.77879613
        51        17         2       0.5      7.75221813      1.89560558      0.55744848
        52        18         1      -1.0      9.25856847      1.93934386      0.64562409
        53        18         2       0.5      9.36110359      2.03645500      0.81431308
        54        18         2       0.5      9.15603335      1.84223273      0.47693509
        55        19         1      -1.0     10.45865929      1.83998243      0.63474031
        56        19         2       0.5     10.62624879      1.94463800      0.73149242
        57        19         2       0.5     10.29106979      1.73532686      0.53798820
        58        20         1      -1.0     11.62894425      1.88771929      0.69316047
        59        20         2       0.5     11.74678690      1.99956977      0.84149314
        60        20         2       0.5     11.51110160      1.77586882      0.54482779
        61        21         1      -1.0      0.70415608      3.15633514      0.62625628
        62        21         2       0.5      0.91789044      3.18345845      0.67077533
        63        21         2       0.5      0.49042171      3.12921182      0.58173722
        64        22         1      -1.0      1.94172990      3.09405805      0.64131133
        65        22         2       0.5      1.99984941      3.30464398      0.66730537
        66        22         2       0.5      1.88361038      2.88347213      0.61531729
        67        23         1      -1.0      3.08130328      3.15640294      0.63825856
        68        23         2       0.5      3.20334300      3.26426861      0.78614807
        69        23         2       0.5      2.95926357      3.04853728      0.49036906
        70        24         1      -1.0      4.36930817      3.17009538      0.66351952
        71        24         2       0.5      4.39290991      3.25276975      0.86602360
        72        24         2       0.5      4.34570644      3.08742101      0.46101543
        73        25         1      -1.0      5.58685371      3.05752060      0.63022685
        74        25         2       0.5      5.72043721      3.12772135      0.79031215
        75        25         2       0.5      5.45327020      2.98731986      0.47014155
        76        26         1      -1.0      6.71599613      3.12189813      0.65855944
        77        26         2       0.5      6.84217139      3.13341731      0.83841246
        78        26         2       0.5      6.58982086      3.11037894      0.47870641
        79        27         1      -1.0      7.93433824      3.08353391      0.69971749
        80        27         2       0.5      8.01321841      3.26205313      0.80124978
        81        27         2       0.5      7.85545806      2.90501469      0.59818519
        82        28         1      -1.0      9.24356577      3.05448382      0.71472550
        83        28         2       0.5      9.38936243      3.19121725      0.80663472
        84        28         2       0.5      9.09776912      2.91775039      0.62281629
        85        29         1      -1.0     10.48430758      3.05959143      0.70787887
        86        29         2       0.5     10.57413972      3.19675799      0.85456057
        87        29         2       0.5     10.39447545      2.92242487      0.56119717
        88        30         1      -1.0     11.63220473      3.16691895      0.68993264
        89        30         2       0.5     11.85181474      3.17029175      0.70258449
        90        30         2       0.5     11.41259473      3.16354616      0.67728078
        91        31         1      -1.0      0.72172828      4.28121250      0.70020539
        92        31         2       0.5      0.92363302      4.33962461      0.76518618
        93        31         2       0.5      0.51982354      4.22280039      0.63522461
        94        32         1      -1.0      1.83230972      4.28039358      0.62787333
        95        32         2       0.5      1.97457850      4.44790160      0.63790606
        96        32         2       0.5      1.69004093      4.11288555      0.61784060
        97        33         1      -1.0      3.08956741      4.28909478      0.72838939
        98        33         2       0.5      3.30610707      4.32520951      0.74275257
        99        33         2       0.5      2.87302774      4.25298005      0.71402621
       100        34         1      -1.0      4.29540695      4.30003622      0.65337000
       101        34         2       0.5      4.35273778      4.50544209      0.70742186
       102        34         2       0.5      4.23807612      4.09463035      0.59931814
       103        35         1      -1.0      5.55307184      4.36987127      0.67089555
       104        35         2       0.5      5.68722965      4.52645831      0.74759095
       105        35         2       0.5      5.41891404      4.21328423      0.59420016
       106        36         1      -1.0      6.81019212      4.31683218      0.65602126
       107        36         2       0.5      6.82500077      4.53521637      0.67813574
       108        36         2       0.5      6.79538348      4.09844799      0.63390679
       109        37         1      -1.0      8.04618145      4.31919307      0.71731340
       110        37         2       0.5      8.22873609      4.44195726      0.71897369
       111        37         2       0.5      7.86362681      4.19642887      0.71565311
       112        38         1      -1.0      9.16148575      4.33794930      0.63124737
       113        38         2       0.5      9.29191481      4.51363103      0.65414258
       114        38         2       0.5      9.03105670      4.16226757      0.60835216
       115        39         1      -1.0     10.37837286      4.32659569      0.71931911
       116        39         2       0.5     10.50715968      4.45089652      0.84723807
       117        39         2       0.5     10.24958605      4.20229485      0.59140016
       118        40         1      -1.0     11.65688700      4.33381684      0.63627128
       119        40         2       0.5     11.81133004      4.34567624      0.79249772
       120        40         2       0.5     11.50244395      4.32195743      0.48004484
       121        41         1      -1.0      0.64798167      5.59829643      0.68708314
       122        41         2       0.5      0.79327289      5.71924299      0.79961043
       123        41         2       0.5      0.50269045      5.47734986      0.57455586
       124        42         1      -1.0      1.90169583      5.54482512      0.61622850
       125        42         2       0.5      2.05110128      5.70620460      0.62211703
       126        42         2       0.5      1.75229038      5.38344565      0.61033997
       127        43         1      -1.0      3.16496185      5.50267681      0.66280220
       128        43         2       0.5      3.36850936      5.51981659      0.74450066
       129        43         2       0.5      2.96141434      5.48553702      0.58110375
       130        44         1      -1.0      4.34511272      5.52036829      0.68756065
       131        44         2       0.5      4.35296409      5.73814972      0.71772030
       132        44         2       0.5      4.33726135      5.30258686      0.65740100
       133        45         1      -1.0      5.49411601      5.51863330      0.64634934
       134        45         2       0.5      5.50884348      5.70500698      0.76231466
       135        45         2       0.5      5.47938855      5.33225962      0.53038403
       136        46         1      -1.0      6.83137681      5.51290558      0.65014619
       137        46         2       0.5      6.87610749      5.71545246      0.72345329
       138        46         2       0.5      6.78664614      5.31035871      0.57683910
       139        47         1      -1.0      7.95568884      5.50179955      0.68341032
       140        47         2       0.5      8.13490274      5.56678315      0.79322614
       141        47         2       0.5      7.77647495      5.43681596      0.57359451
       142        48         1      -1.0      9.22954767      5.60109619      0.70985225
       143        48         2       0.5      9.33718390      5.69440974      0.87750375
       144        48         2       0.5      9.12191144      5.50778263      0.54220076
       145        49         1      -1.0     10.45785834      5.49235805      0.62292993
       146        49         2       0.5     10.59050232      5.65633165      0.68552573
       147        49         2       0.5     10.32521437      5.32838445      0.56033413
       148        50         1      -1.0     11.61196001      5.57289310      0.61560313
       149        50         2       0.5     11.66399975      5.61280291      0.82560092
       150        50         2       0.5     11.55992027      5.53298329      0.40560534
       151        51         1      -1.0      0.66551733      6.76123892      0.61897073
       152        51         2       0.5      0.77365745      6.95263071      0.62762507
       153        51         2       0.5      0.55737721      6.56984713      0.61031639
       154        52         1      -1.0      1.83942868      6.79582606      0.64321081
       155        52         2       0.5      1.99463478      6.87480215      0.77764980
       156        52         2       0.5      1.68422257      6.71684996      0.50877182
       157        53         1      -1.0      3.06756009      6.71456706      0.62683931
       158        53         2       0.5      3.21842822      6.84478953      0.72001073
       159        53         2       0.5      2.91669195      6.58434458      0.53366790
       160        54         1      -1.0      4.34771772      6.74271811      0.66300419
       161        54         2       0.5      4.43509982      6.92390345      0.75208977
       162        54         2       0.5      4.26033563      6.56153277      0.57391860
       163        55         1      -1.0      5.50235175      6.73474754      0.64521575
       164        55         2       0.5      5.63510521      6.82421481      0.79612011
       165        55         2       0.5      5.36959829      6.64528028      0.49431138
       166        56         1      -1.0      6.75336554      6.80604401      0.69701478
       167        56         2       0.5      6.85711346      6.82427580      0.89015714
       168        56         2       0.5      6.64961763      6.78781221      0.50387242
       169        57         1      -1.0      8.02367234      6.79382686      0.68100732
       170        57         2       0.5      8.19329641      6.92573076      0.72821997
       171        57         2       0.5      7.85404826      6.66192295      0.63379467
       172        58         1      -1.0      9.19411785      6.76989287      0.72854306
       173        58         2       0.5      9.30567964      6.90655799      0.85998358
       174        58         2       0.5      9.08255605      6.63322774      0.59710254
       175        59         1      -1.0     10.43453962      6.79291659      0.68557531
       176        59         2       0.5     10.62419380      6.90191762      0.70902883
       177        59         2       0.5     10.24488544      6.68391555      0.66212178
       178        60         1      -1.0     11.68833230      6.78931012      0.68819787
       179        60         2       0.5     11.86191708      6.79093494      0.82334848
       180        60         2       0.5     11.51474753      6.78768531      0.55304726
       181        61         1      -1.0      0.63189146      7.95983622      0.72877450
       182        61         2       0.5      0.83818459      8.03619289      0.73235288
       183        61         2       0.5      0.42559834      7.88347954      0.72519613
       184        62         1      -1.0      1.91826191      7.96674180      0.70427176
       185        62         2       0.5      1.95374922      8.13056443      0.84675965
       186        62         2       0.5      1.88277460      7.80291917      0.56178387
       187        63         1      -1.0      3.13958022      7.95596210      0.73028556
       188        63         2       0.5      3.16419400      7.98509026      0.94695515
       189        63         2       0.5      3.11496643      7.92683395      0.51361597
       190        64         1      -1.0      4.33171257      8.03650179      0.61502287
       191        64         2       0.5      4.41653232      8.09878201      0.80822428
       192        64         2       0.5      4.24689281      7.97422157      0.42182147
       193        65         1      -1.0      5.57233665      7.99629673      0.62839450
       194        65         2       0.5      5.60602328      8.21361745      0.63447057
       195        65         2       0.5      5.53865001      7.77897602      0.62231844
       196        66         1      -1.0      6.72139619      7.97538996      0.69655686
       197        66         2       0.5      6.83555285      8.12285561      0.81327078
       198        66         2       0.5      6.60723953      7.82792431      0.57984295
       199        67         1      -1.0      8.00158343      7.96487616      0.71030090
       200        67         2       0.5      8.11787796      8.01127209      0.89119590
       201        67         2       0.5      7.88528889      7.91848024      0.52940591
       202        68         1      -1.0      9.22211225      7.98236048      0.63352468
       203        68         2       0.5      9.27605280      8.06686144      0.82935625
       204        68         2       0.5      9.16817170      7.89785951      0.43769310
       205        69         1      -1.0     10.37790144      7.98296480      0.61363838
       206        69         2       0.5     10.50862607      8.14207985      0.69105591
       207        69         2       0.5     10.24717682      7.82384976      0.53622084
       208        70         1      -1.0     11.66295841      8.00267867      0.67395478
       209        70         2       0.5     11.78452646      8.15105720      0.78168137
       210        70         2       0.5     11.54139036      7.85430013      0.56622818
       211        71         1      -1.0      0.67305457      9.16743428      0.69699228
       212        71         2       0.5      0.71485525      9.33566652      0.83245673
       213        71         2       0.5      0.63125390      8.99920204      0.56152784
       214        72         1      -1.0      1.94588408      9.20422365      0.69087169
       215        72         2       0.5      2.12051773      9.33773587      0.69967944
       216        72         2       0.5      1.77125043      9.07071144      0.68206394
       217        73         1      -1.0      3.09740623      9.22682662      0.62383214
       218        73         2       0.5      3.14703122      9.32428426      0.81472312
       219        73         2       0.5      3.04778124      9.12936898      0.43294115
       220        74         1      -1.0      4.34629056      9.18730986      0.67170847
       221        74         2       0.5      4.49064188      9.19734638      0.83742499
       222        74         2       0.5      4.20193924      9.17727334      0.50599195
       223        75         1      -1.0      5.49367614      9.25290521      0.71714884
       224        75         2       0.5      5.66476741      9.31573574      0.84035639
       225        75         2       0.5      5.32258487      9.19007467      0.59394129
       226        76         1      -1.0      6.73710191      9.22651359      0.68704986
       227        76         2       0.5      6.74295251      9.33290098      0.87952711
       228        76         2       0.5      6.73125130      9.12012619      0.49457261
       229        77         1      -1.0      8.04328104      9.19342409      0.69759616
       230        77         2       0.5      8.13304243      9.39427599      0.69878279
       231        77         2       0.5      7.95351965      8.99257219      0.69640953
       232        78         1      -1.0      9.23717575      9.19574468      0.71688920
       233        78         2       0.5      9.38392124      9.35899460      0.73155981
       234        78         2       0.5      9.09043027      9.03249476      0.70221860
       235        79         1      -1.0     10.40435246      9.16926969      0.70783269
       236        79         2       0.5     10.59543636      9.22681468      0.80043679
       237        79         2       0.5     10.21326857      9.11172470      0.61522859
       238        80         1      -1.0     11.69002604      9.20124605      0.66269878
       239        80         2       0.5     11.87231113      9.26232757      0.76966230
       240        80         2       0.5     11.50774095      9.14016454      0.55573526
       241        81         1      -1.0      0.67480594     10.41548154      0.70316091
       242        81         2       0.5      0.72745534     10.42504840      0.91655378
       243        81         2       0.5      0.62215654     10.40591467      0.48976805
       244        82         1      -1.0      1.91103544     10.41083950      0.72865163
       245        82         2       0.5      2.05046638     10.57989043      0.74816559
       246        82         2       0.5      1.77160450     10.24178856      0.70913767
       247        83         1      -1.0      3.05845873     10.48988455      0.66613361
       248        83         2       0.5      3.14016239     10.51336197      0.86904571
       249        83         2       0.5      2.97675506     10.46640713      0.46322150
       250        84         1      -1.0      4.33910083     10.45227106      0.63352576
       251        84         2       0.5      4.50166516     10.56662675      0.72784234
       252        84         2       0.5      4.17653650     10.33791538      0.53920919
       253        85         1      -1.0      5.50714459     10.43376751      0.68769849
       254        85         2       0.5      5.61526294     10.44903409      0.87868894
       255        85         2       0.5      5.39902624     10.41850093      0.49670804
       256        86         1      -1.0      6.81483278     10.38341890      0.64130052
       257        86         2       0.5      6.95887568     10.51046198      0.74859310
       258        86         2       0.5      6.67078987     10.25637582      0.53400795
       259        87         1      -1.0      7.97757239     10.38622906      0.72209419
       260        87         2       0.5      8.07449422     10.53791078      0.84858062
       261        87         2       0.5      7.88065056     10.23454735      0.59560777
       262        88         1      -1.0      9.19664833     10.47106940      0.65798980
       263        88         2       0.5      9.33110643     10.52976725      0.82192754
       264        88         2       0.5      9.06219024     10.41237155      0.49405206
       265        89         1      -1.0     10.38695950     10.47360286      0.62521894
       266        89         2       0.5     10.52749739     10.59623205      0.74188592
       267        89         2       0.5     10.24642161     10.35097367      0.50855195
       268        90         1      -1.0     11.60984389     10.39968349      0.72551282
       269        90         2       0.5     11.66625393     10.54418671      0.88151515
       270        90         2       0.5     11.55343385     10.25518028      0.56951048
       271        91         1      -1.0      0.72264494     11.62149406      0.63299192
       272        91         2       0.5      0.80054383     11.80362052      0.72870878
       273        91         2       0.5      0.64474606     11.43936760      0.53727505
       274        92         1      -1.0      1.83251527     11.71666096      0.70479077
       275        92         2       0.5      1.93871268     11.88503427      0.79845260
       276        92         2       0.5      1.72631786     11.54828765      0.61112894
       277        93         1      -1.0      3.16413217     11.69285310      0.72615057
       278        93         2       0.5      3.20866857     11.87109144      0.84717786
       279        93         2       0.5      3.11959578     11.51461477      0.60512327
       280        94         1      -1.0      4.32345856     11.60086885      0.65438908
       281        94         2       0.5      4.34291982     11.77392160      0.78882869
       282        94         2       0.5      4.30399731     11.42781611      0.51994948
       283        95         1      -1.0      5.57295484     11.67155769      0.72548264
       284        95         2       0.5      5.59872713     11.87970945      0.79188018
       285        95         2       0.5      5.54718255     11.46340593      0.65908510
       286        96         1      -1.0      6.80595677     11.68999918      0.65305027
       287        96         2       0.5      6.87465402     11.89413239      0.69788689
       288        96         2       0.5      6.73725952     11.48586598      0.60821365
       289        97         1      -1.0      7.95756411     11.66884006      0.62075086
       290        97         2       0.5      8.10839603     11.79554732      0.71870495
       291        97         2       0.5      7.80673220     11.54213279      0.52279678
       292        98         1      -1.0      9.25533612     11.60382057      0.62560497
       293        98         2       0.5      9.37950863     11.71381914      0.77010930
       294        98         2       0.5      9.13116361     11.49382199      0.48110064
       295        99         1      -1.0     10.46052106     11.69495780      0.65666326
       296        99         2       0.5     10.56020375     11.82737988      0.80132754
       297        99         2       0.5     10.36083837     11.56253572      0.51199898
       298       100         1      -1.0     11.68194176     11.65760899      0.72420715
       299       100         2       0.5     11.82359932     11.79691227      0.81869383
       300       100         2       0.5     11.54028420     11.51830572      0.62972047
       301       101         1      -1.0      0.62327972      0.61271151      1.91456090
       302       101         2       0.5      0.71156689      0.62344331      2.11578268
       303       101         2       0.5      0.53499255      0.60197971      1.71333913
       304       102         1      -1.0      1.94112600      0.63861735      1.87788331
       305       102         2       0.5      2.12813972      0.75408858      1.88748872
       306       102         2       0.5      1.75411227      0.52314612      1.86827790
       307       103         1      -1.0      3.09732001      0.70269010      1.83080732
       308       103         2       0.5      3.24346532      0.86327364      1.86622584
       309       103         2       0.5      2.95117469      0.54210656      1.79538880
       310       104         1      -1.0      4.28338410      0.63669846      1.90715979
       311       104         2       0.5      4.46091052      0.67116530      2.03244508
       312       104         2       0.5      4.10585767      0.60223163      1.78187450
       313       105         1      -1.0      5.58272378      0.73143747      1.86825898
       314       105         2       0.5      5.78521318      0.81739152      1.87141244
       315       105         2       0.5      5.38023438      0.64548342      1.86510553
       316       106         1      -1.0      6.74365190      0.69996861      1.93141109
       317       106         2       0.5      6.75693665      0.85550213      2.08643638
       318       106         2       0.5      6.73036715      0.54443508      1.77638581
       319       107         1      -1.0      7.96178545      0.70268474      1.93683073
       320       107         2       0.5      8.07959251      0.83674180      2.06547832
       321       107         2       0.5      7.84397840      0.56862769      1.80818314
       322       108         1      -1.0      9.17470563      0.71603132      1.85756382
       323       108         2       0.5      9.30332073      0.82195257      2.00122608
       324       108         2       0.5      9.04609053      0.61011007      1.71390156
       325       109         1      -1.0     10.45818992      0.69368844      1.87610470
       326       109         2       0.5     10.65812328      0.74664331      1.95108760
       327       109         2       0.5     10.25825656      0.64073357      1.80112181
       328       110         1      -1.0     11.63564182      0.68128339      1.91760714
       329       110         2       0.5     11.83045821      0.74862476      1.99449480
       330       110         2       0.5     11.44082542      0.61394202      1.84071948