ITEM: TIMESTEP
0
ITEM: NUMBER OF ATOMS
6204
ITEM: BOX BOUNDS pp pp ff
0.0000000000000000e+00 1.2400000000000000e+01
0.0000000000000000e+00 1.2400000000000000e+01
0.0000000000000000e+00 3.7200000000000003e+01
ITEM: ATOMS id type xs ys zs
1 1 0.0483871 0.0887097 0.00672043
2 2 0.0511625 0.106233 0.00672043
3 2 0.0456116 0.0711862 0.00672043
4 1 0.0483871 0.169355 0.00672043
5 2 0.0310724 0.173225 0.00672043
6 2 0.0657017 0.165485 0.00672043
7 1 0.0483871 0.25 0.00672043
8 2 0.0511625 0.267524 0.00672043
9 2 0.0456116 0.232476 0.00672043
10 1 0.0483871 0.330645 0.00672043
11 2 0.0310724 0.334515 0.00672043
12 2 0.0657017 0.326775 0.00672043
13 1 0.0483871 0.41129 0.00672043
14 2 0.0511625 0.428814 0.00672043
15 2 0.0456116 0.393767 0.00672043
16 1 0.0483871 0.491935 0.00672043
17 2 0.0310724 0.495806 0.00672043
18 2 0.0657017 0.488065 0.00672043
19 1 0.0483871 0.572581 0.00672043
20 2 0.0511625 0.590104 0.00672043
21 2 0.0456116 0.555057 0.00672043
22 1 0.0483871 0.653226 0.00672043
23 2 0.0310724 0.657096 0.00672043
24 2 0.0657017 0.649356 0.00672043
25 1 0.0483871 0.733871 0.00672043
26 2 0.0511625 0.751394 0.00672043
27 2 0.0456116 0.716347 0.00672043
28 1 0.0483871 0.814516 0.00672043
29 2 0.0310724 0.818386 0.00672043
30 2 0.0657017 0.810646 0.00672043
31 1 0.0483871 0.895161 0.00672043
32 2 0.0511625 0.912685 0.00672043
33 2 0.0456116 0.877638 0.00672043
34 1 0.0483871 0.975806 0.00672043
35 2 0.0310724 0.979677 0.00672043
36 2 0.0657017 0.971936 0.00672043
37 1 0.118228 0.0483871 0.00672043
38 2 0.100913 0.0522574 0.00672043
39 2 0.135543 0.0445168 0.00672043
40 1 0.118228 0.129032 0.00672043
41 2 0.121003 0.146556 0.00672043
42 2 0.115452 0.111509 0.00672043
43 1 0.118228 0.209677 0.00672043
44 2 0.100913 0.213548 0.00672043
45 2 0.135543 0.205807 0.00672043
46 1 0.118228 0.290323 0.00672043
47 2 0.121003 0.307846 0.00672043
48 2 0.115452 0.272799 0.00672043
49 1 0.118228 0.370968 0.00672043
50 2 0.100913 0.374838 0.00672043
51 2 0.135543 0.367097 0.00672043
52 1 0.118228 0.451613 0.00672043
53 2 0.121003 0.469136 0.00672043
54 2 0.115452 0.434089 0.00672043
55 1 0.118228 0.532258 0.00672043
56 2 0.100913 0.536128 0.00672043
57 2 0.135543 0.528388 0.00672043
58 1 0.118228 0.612903 0.00672043
59 2 0.121003 0.630427 0.00672043
60 2 0.115452 0.59538 0.00672043
61 1 0.118228 0.693548 0.00672043
62 2 0.100913 0.697419 0.00672043
63 2 0.135543 0.689678 0.00672043
64 1 0.118228 0.774194 0.00672043
65 2 0.121003 0.791717 0.00672043
66 2 0.115452 0.75667 0.00672043
67 1 0.118228 0.854839 0.00672043
68 2 0.100913 0.858709 0.00672043
69 2 0.135543 0.850968 0.00672043
70 1 0.118228 0.935484 0.00672043
71 2 0.121003 0.953007 0.00672043
72 2 0.115452 0.91796 0.00672043
73 1 0.188069 0.0887097 0.00672043
74 2 0.170754 0.09258 0.00672043
75 2 0.205383 0.0848394 0.00672043
76 1 0.188069 0.169355 0.00672043
77 2 0.190844 0.186878 0.00672043
78 2 0.185293 0.151831 0.00672043
79 1 0.188069 0.25 0.00672043
80 2 0.170754 0.25387 0.00672043
81 2 0.205383 0.24613 0.00672043
82 1 0.188069 0.330645 0.00672043
83 2 0.190844 0.348169 0.00672043
84 2 0.185293 0.313122 0.00672043
85 1 0.188069 0.41129 0.00672043
86 2 0.170754 0.415161 0.00672043
87 2 0.205383 0.40742 0.00672043
88 1 0.188069 0.491935 0.00672043
89 2 0.190844 0.509459 0.00672043
90 2 0.185293 0.474412 0.00672043
91 1 0.188069 0.572581 0.00672043
92 2 0.170754 0.576451 0.00672043
93 2 0.205383 0.56871 0.00672043
94 1 0.188069 0.653226 0.00672043
95 2 0.190844 0.670749 0.00672043
96 2 0.185293 0.635702 0.00672043
97 1 0.188069 0.733871 0.00672043
98 2 0.170754 0.737741 0.00672043
99 2 0.205383 0.730001 0.00672043
100 1 0.188069 0.814516 0.00672043
101 2 0.190844 0.83204 0.00672043
102 2 0.185293 0.796993 0.00672043
103 1 0.188069 0.895161 0.00672043
104 2 0.170754 0.899032 0.00672043
105 2 0.205383 0.891291 0.00672043
106 1 0.188069 0.975806 0.00672043
107 2 0.190844 0.99333 0.00672043
108 2 0.185293 0.958283 0.00672043
109 1 0.257909 0.0483871 0.00672043
110 2 0.260685 0.0659106 0.00672043
111 2 0.255134 0.0308636 0.00672043
112 1 0.257909 0.129032 0.00672043
113 2 0.240595 0.132903 0.00672043
114 2 0.275224 0.125162 0.00672043
115 1 0.257909 0.209677 0.00672043
116 2 0.260685 0.227201 0.00672043
117 2 0.255134 0.192154 0.00672043
118 1 0.257909 0.290323 0.00672043
119 2 0.240595 0.294193 0.00672043
120 2 0.275224 0.286452 0.00672043
121 1 0.257909 0.370968 0.00672043
122 2 0.260685 0.388491 0.00672043
123 2 0.255134 0.353444 0.00672043
124 1 0.257909 0.451613 0.00672043
125 2 0.240595 0.455483 0.00672043
126 2 0.275224 0.447743 0.00672043
127 1 0.257909 0.532258 0.00672043
128 2 0.260685 0.549782 0.00672043
129 2 0.255134 0.514735 0.00672043
130 1 0.257909 0.612903 0.00672043
131 2 0.240595 0.616774 0.00672043
132 2 0.275224 0.609033 0.00672043
133 1 0.257909 0.693548 0.00672043
134 2 0.260685 0.711072 0.00672043
135 2 0.255134 0.676025 0.00672043
136 1 0.257909 0.774194 0.00672043
137 2 0.240595 0.778064 0.00672043
138 2 0.275224 0.770323 0.00672043
139 1 0.257909 0.854839 0.00672043
140 2 0.260685 0.872362 0.00672043
141 2 0.255134 0.837315 0.00672043
142 1 0.257909 0.935484 0.00672043
143 2 0.240595 0.939354 0.00672043
144 2 0.275224 0.931614 0.00672043
145 1 0.32775 0.0887097 0.00672043
146 2 0.330526 0.106233 0.00672043
147 2 0.324975 0.0711862 0.00672043
148 1 0.32775 0.169355 0.00672043
149 2 0.310435 0.173225 0.00672043
150 2 0.345065 0.165485 0.00672043
151 1 0.32775 0.25 0.00672043
152 2 0.330526 0.267524 0.00672043
153 2 0.324975 0.232476 0.00672043
154 1 0.32775 0.330645 0.00672043
155 2 0.310435 0.334515 0.00672043
156 2 0.345065 0.326775 0.00672043
157 1 0.32775 0.41129 0.00672043
158 2 0.330526 0.428814 0.00672043
159 2 0.324975 0.393767 0.00672043
160 1 0.32775 0.491935 0.00672043
161 2 0.310435 0.495806 0.00672043
162 2 0.345065 0.488065 0.00672043
163 1 0.32775 0.572581 0.00672043
164 2 0.330526 0.590104 0.00672043
165 2 0.324975 0.555057 0.00672043
166 1 0.32775 0.653226 0.00672043
167 2 0.310435 0.657096 0.00672043
168 2 0.345065 0.649356 0.00672043
169 1 0.32775 0.733871 0.00672043
170 2 0.330526 0.751394 0.00672043
171 2 0.324975 0.716347 0.00672043
172 1 0.32775 0.814516 0.00672043
173 2 0.310435 0.818386 0.00672043
174 2 0.345065 0.810646 0.00672043
175 1 0.32775 0.895161 0.00672043
176 2 0.330526 0.912685 0.00672043
177 2 0.324975 0.877638 0.00672043
178 1 0.32775 0.975806 0.00672043
179 2 0.310435 0.979677 0.00672043
180 2 0.345065 0.971936 0.00672043
181 1 0.397591 0.0483871 0.00672043
182 2 0.380276 0.0522574 0.00672043
183 2 0.414906 0.0445168 0.00672043
184 1 0.397591 0.129032 0.00672043
185 2 0.400366 0.146556 0.00672043
186 2 0.394815 0.111509 0.00672043
187 1 0.397591 0.209677 0.00672043
188 2 0.380276 0.213548 0.00672043
189 2 0.414906 0.205807 0.00672043
190 1 0.397591 0.290323 0.00672043
191 2 0.400366 0.307846 0.00672043
192 2 0.394815 0.272799 0.00672043
193 1 0.397591 0.370968 0.00672043
194 2 0.380276 0.374838 0.00672043
195 2 0.414906 0.367097 0.00672043
196 1 0.397591 0.451613 0.00672043
197 2 0.400366 0.469136 0.00672043
198 2 0.394815 0.434089 0.00672043
199 1 0.397591 0.532258 0.00672043
200 2 0.380276 0.536128 0.00672043
201 2 0.414906 0.528388 0.00672043
202 1 0.397591 0.612903 0.00672043
203 2 0.400366 0.630427 0.00672043
204 2 0.394815 0.59538 0.00672043
205 1 0.397591 0.693548 0.00672043
206 2 0.380276 0.697419 0.00672043
207 2 0.414906 0.689678 0.00672043
208 1 0.397591 0.774194 0.00672043
209 2 0.400366 0.791717 0.00672043
210 2 0.394815 0.75667 0.00672043
211 1 0.397591 0.854839 0.00672043
212 2 0.380276 0.858709 0.00672043
213 2 0.414906 0.850968 0.00672043
214 1 0.397591 0.935484 0.00672043
215 2 0.400366 0.953007 0.00672043
216 2 0.394815 0.91796 0.00672043
217 1 0.467432 0.0887097 0.00672043
218 2 0.450117 0.09258 0.00672043
219 2 0.484746 0.0848394 0.00672043
220 1 0.467432 0.169355 0.00672043
221 2 0.470207 0.186878 0.00672043
222 2 0.464656 0.151831 0.00672043
223 1 0.467432 0.25 0.00672043
224 2 0.450117 0.25387 0.00672043
225 2 0.484746 0.24613 0.00672043
226 1 0.467432 0.330645 0.00672043
227 2 0.470207 0.348169 0.00672043
228 2 0.464656 0.313122 0.00672043
229 1 0.467432 0.41129 0.00672043
230 2 0.450117 0.415161 0.00672043
231 2 0.484746 0.40742 0.00672043
232 1 0.467432 0.491935 0.00672043
233 2 0.470207 0.509459 0.00672043
234 2 0.464656 0.474412 0.00672043
235 1 0.467432 0.572581 0.00672043
236 2 0.450117 0.576451 0.00672043
237 2 0.484746 0.56871 0.00672043
238 1 0.467432 0.653226 0.00672043
239 2 0.470207 0.670749 0.00672043
240 2 0.464656 0.635702 0.00672043
241 1 0.467432 0.733871 0.00672043
242 2 0.450117 0.737741 0.00672043
243 2 0.484746 0.730001 0.00672043
244 1 0.467432 0.814516 0.00672043
245 2 0.470207 0.83204 0.00672043
246 2 0.464656 0.796993 0.00672043
247 1 0.467432 0.895161 0.00672043
248 2 0.450117 0.899032 0.00672043
249 2 0.484746 0.891291 0.00672043
250 1 0.467432 0.975806 0.00672043
251 2 0.470207 0.99333 0.00672043
252 2 0.464656 0.958283 0.00672043
253 1 0.537272 0.0483871 0.00672043
254 2 0.540048 0.0659106 0.00672043
255 2 0.534497 0.0308636 0.00672043
256 1 0.537272 0.129032 0.00672043
257 2 0.519958 0.132903 0.00672043
258 2 0.554587 0.125162 0.00672043
259 1 0.537272 0.209677 0.00672043
260 2 0.540048 0.227201 0.00672043
261 2 0.534497 0.192154 0.00672043
262 1 0.537272 0.290323 0.00672043
263 2 0.519958 0.294193 0.00672043
264 2 0.554587 0.286452 0.00672043
265 1 0.537272 0.370968 0.00672043
266 2 0.540048 0.388491 0.00672043
267 2 0.534497 0.353444 0.00672043
268 1 0.537272 0.451613 0.00672043
269 2 0.519958 0.455483 0.00672043
270 2 0.554587 0.447743 0.00672043
271 1 0.537272 0.532258 0.00672043
272 2 0.540048 0.549782 0.00672043
273 2 0.534497 0.514735 0.00672043
274 1 0.537272 0.612903 0.00672043
275 2 0.519958 0.616774 0.00672043
276 2 0.554587 0.609033 0.00672043
277 1 0.537272 0.693548 0.00672043
278 2 0.540048 0.711072 0.00672043
279 2 0.534497 0.676025 0.00672043
280 1 0.537272 0.774194 0.00672043
281 2 0.519958 0.778064 0.00672043
282 2 0.554587 0.770323 0.00672043
283 1 0.537272 0.854839 0.00672043
284 2 0.540048 0.872362 0.00672043
285 2 0.534497 0.837315 0.00672043
286 1 0.537272 0.935484 0.00672043
287 2 0.519958 0.939354 0.00672043
288 2 0.554587 0.931614 0.00672043
289 1 0.607113 0.0887097 0.00672043
290 2 0.609889 0.106233 0.00672043
291 2 0.604338 0.0711862 0.00672043
292 1 0.607113 0.169355 0.00672043
293 2 0.589799 0.173225 0.00672043
294 2 0.624428 0.165485 0.00672043
295 1 0.607113 0.25 0.00672043
296 2 0.609889 0.267524 0.00672043
297 2 0.604338 0.232476 0.00672043
298 1 0.607113 0.330645 0.00672043
299 2 0.589799 0.334515 0.00672043
300 2 0.624428 0.326775 0.00672043
301 1 0.607113 0.41129 0.00672043
302 2 0.609889 0.428814 0.00672043
303 2 0.604338 0.393767 0.00672043
304 1 0.607113 0.491935 0.00672043
305 2 0.589799 0.495806 0.00672043
306 2 0.624428 0.488065 0.00672043
307 1 0.607113 0.572581 0.00672043
308 2 0.609889 0.590104 0.00672043
309 2 0.604338 0.555057 0.00672043
310 1 0.607113 0.653226 0.00672043
311 2 0.589799 0.657096 0.00672043
312 2 0.624428 0.649356 0.00672043
313 1 0.607113 0.733871 0.00672043
314 2 0.609889 0.751394 0.00672043
315 2 0.604338 0.716347 0.00672043
316 1 0.607113 0.814516 0.00672043
317 2 0.589799 0.818386 0.00672043
318 2 0.624428 0.810646 0.00672043
319 1 0.607113 0.895161 0.00672043
320 2 0.609889 0.912685 0.00672043
321 2 0.604338 0.877638 0.00672043
322 1 0.607113 0.975806 0.00672043
323 2 0.589799 0.979677 0.00672043
324 2 0.624428 0.971936 0.00672043
325 1 0.676954 0.0483871 0.00672043
326 2 0.659639 0.0522574 0.00672043
327 2 0.694269 0.0445168 0.00672043
328 1 0.676954 0.129032 0.00672043
329 2 0.679729 0.146556 0.00672043
330 2 0.674178 0.111509 0.00672043
331 1 0.676954 0.209677 0.00672043
332 2 0.659639 0.213548 0.00672043
333 2 0.694269 0.205807 0.00672043
334 1 0.676954 0.290323 0.00672043
335 2 0.679729 0.307846 0.00672043
336 2 0.674178 0.272799 0.00672043
337 1 0.676954 0.370968 0.00672043
338 2 0.659639 0.374838 0.00672043
339 2 0.694269 0.367097 0.00672043
340 1 0.676954 0.451613 0.00672043
341 2 0.679729 0.469136 0.00672043
342 2 0.674178 0.434089 0.00672043
343 1 0.676954 0.532258 0.00672043
344 2 0.659639 0.536128 0.00672043
345 2 0.694269 0.528388 0.00672043
346 1 0.676954 0.612903 0.00672043
347 2 0.679729 0.630427 0.00672043
348 2 0.674178 0.59538 0.00672043
349 1 0.676954 0.693548 0.00672043
350 2 0.659639 0.697419 0.00672043
351 2 0.694269 0.689678 0.00672043
352 1 0.676954 0.774194 0.00672043
353 2 0.679729 0.791717 0.00672043
354 2 0.674178 0.75667 0.00672043
355 1 0.676954 0.854839 0.00672043
356 2 0.659639 0.858709 0.00672043
357 2 0.694269 0.850968 0.00672043
358 1 0.676954 0.935484 0.00672043
359 2 0.679729 0.953007 0.00672043
360 2 0.674178 0.91796 0.00672043
361 1 0.746795 0.0887097 0.00672043
362 2 0.72948 0.09258 0.00672043
363 2 0.764109 0.0848394 0.00672043
364 1 0.746795 0.169355 0.00672043
365 2 0.74957 0.186878 0.00672043
366 2 0.744019 0.151831 0.00672043
367 1 0.746795 0.25 0.00672043
368 2 0.72948 0.25387 0.00672043
369 2 0.764109 0.24613 0.00672043
370 1 0.746795 0.330645 0.00672043
371 2 0.74957 0.348169 0.00672043
372 2 0.744019 0.313122 0.00672043
373 1 0.746795 0.41129 0.00672043
374 2 0.72948 0.415161 0.00672043
375 2 0.764109 0.40742 0.00672043
376 1 0.746795 0.491935 0.00672043
377 2 0.74957 0.509459 0.00672043
378 2 0.744019 0.474412 0.00672043
379 1 0.746795 0.572581 0.00672043
380 2 0.72948 0.576451 0.00672043
381 2 0.764109 0.56871 0.00672043
382 1 0.746795 0.653226 0.00672043
383 2 0.74957 0.670749 0.00672043
384 2 0.744019 0.635702 0.00672043
385 1 0.746795 0.733871 0.00672043
386 2 0.72948 0.737741 0.00672043
387 2 0.764109 0.730001 0.00672043
388 1 0.746795 0.814516 0.00672043
389 2 0.74957 0.83204 0.00672043
390 2 0.744019 0.796993 0.00672043
391 1 0.746795 0.895161 0.00672043
392 2 0.72948 0.899032 0.00672043
393 2 0.764109 0.891291 0.00672043
394 1 0.746795 0.975806 0.00672043
395 2 0.74957 0.99333 0.00672043
396 2 0.744019 0.958283 0.00672043
397 1 0.816635 0.0483871 0.00672043
398 2 0.819411 0.0659106 0.00672043
399 2 0.81386 0.0308636 0.00672043
400 1 0.816635 0.129032 0.00672043
401 2 0.799321 0.132903 0.00672043
402 2 0.83395 0.125162 0.00672043
403 1 0.816635 0.209677 0.00672043
404 2 0.819411 0.227201 0.00672043
405 2 0.81386 0.192154 0.00672043
406 1 0.816635 0.290323 0.00672043
407 2 0.799321 0.294193 0.00672043
408 2 0.83395 0.286452 0.00672043
409 1 0.816635 0.370968 0.00672043
410 2 0.819411 0.388491 0.00672043
411 2 0.81386 0.353444 0.00672043
412 1 0.816635 0.451613 0.00672043
413 2 0.799321 0.455483 0.00672043
414 2 0.83395 0.447743 0.00672043
415 1 0.816635 0.532258 0.00672043
416 2 0.819411 0.549782 0.00672043
417 2 0.81386 0.514735 0.00672043
418 1 0.816635 0.612903 0.00672043
419 2 0.799321 0.616774 0.00672043
420 2 0.83395 0.609033 0.00672043
421 1 0.816635 0.693548 0.00672043
422 2 0.819411 0.711072 0.00672043
423 2 0.81386 0.676025 0.00672043
424 1 0.816635 0.774194 0.00672043
425 2 0.799321 0.778064 0.00672043
426 2 0.83395 0.770323 0.00672043
427 1 0.816635 0.854839 0.00672043
428 2 0.819411 0.872362 0.00672043
429 2 0.81386 0.837315 0.00672043
430 1 0.816635 0.935484 0.00672043
431 2 0.799321 0.939354 0.00672043
432 2 0.83395 0.931614 0.00672043
433 1 0.886476 0.0887097 0.00672043
434 2 0.889252 0.106233 0.00672043
435 2 0.883701 0.0711862 0.00672043
436 1 0.886476 0.169355 0.00672043
437 2 0.869162 0.173225 0.00672043
438 2 0.903791 0.165485 0.00672043
439 1 0.886476 0.25 0.00672043
440 2 0.889252 0.267524 0.00672043
441 2 0.883701 0.232476 0.00672043
442 1 0.886476 0.330645 0.00672043
443 2 0.869162 0.334515 0.00672043
444 2 0.903791 0.326775 0.00672043
445 1 0.886476 0.41129 0.00672043
446 2 0.889252 0.428814 0.00672043
447 2 0.883701 0.393767 0.00672043
448 1 0.886476 0.491935 0.00672043
449 2 0.869162 0.495806 0.00672043
450 2 0.903791 0.488065 0.00672043
451 1 0.886476 0.572581 0.00672043
452 2 0.889252 0.590104 0.00672043
453 2 0.883701 0.555057 0.00672043
454 1 0.886476 0.653226 0.00672043
455 2 0.869162 0.657096 0.00672043
456 2 0.903791 0.649356 0.00672043
457 1 0.886476 0.733871 0.00672043
458 2 0.889252 0.751394 0.00672043
459 2 0.883701 0.716347 0.00672043
460 1 0.886476 0.814516 0.00672043
461 2 0.869162 0.818386 0.00672043
462 2 0.903791 0.810646 0.00672043
463 1 0.886476 0.895161 0.00672043
464 2 0.889252 0.912685 0.00672043
465 2 0.883701 0.877638 0.00672043
466 1 0.886476 0.975806 0.00672043
467 2 0.869162 0.979677 0.00672043
468 2 0.903791 0.971936 0.00672043
469 1 0.956317 0.0483871 0.00672043
470 2 0.939002 0.0522574 0.00672043
471 2 0.973632 0.0445168 0.00672043
472 1 0.956317 0.129032 0.00672043
473 2 0.959092 0.146556 0.00672043
474 2 0.953542 0.111509 0.00672043
475 1 0.956317 0.209677 0.00672043
476 2 0.939002 0.213548 0.00672043
477 2 0.973632 0.205807 0.00672043
478 1 0.956317 0.290323 0.00672043
479 2 0.959092 0.307846 0.00672043
480 2 0.953542 0.272799 0.00672043
481 1 0.956317 0.370968 0.00672043
482 2 0.939002 0.374838 0.00672043
483 2 0.973632 0.367097 0.00672043
484 1 0.956317 0.451613 0.00672043
485 2 0.959092 0.469136 0.00672043
486 2 0.953542 0.434089 0.00672043
487 1 0.956317 0.532258 0.00672043
488 2 0.939002 0.536128 0.00672043
489 2 0.973632 0.528388 0.00672043
490 1 0.956317 0.612903 0.00672043
491 2 0.959092 0.630427 0.00672043
492 2 0.953542 0.59538 0.00672043
493 1 0.956317 0.693548 0.00672043
494 2 0.939002 0.697419 0.00672043
495 2 0.973632 0.689678 0.00672043
496 1 0.956317 0.774194 0.00672043
497 2 0.959092 0.791717 0.00672043
498 2 0.953542 0.75667 0.00672043
499 1 0.956317 0.854839 0.00672043
500 2 0.939002 0.858709 0.00672043
501 2 0.973632 0.850968 0.00672043
502 1 0.956317 0.935484 0.00672043
503 2 0.959092 0.953007 0.00672043
504 2 0.953542 0.91796 0.00672043
505 1 0.0483871 0.0483871 0.0725806
506 2 0.0511625 0.0659106 0.0725806
507 2 0.0456116 0.0308636 0.0725806
508 1 0.0483871 0.145161 0.0725806
509 2 0.0511625 0.162685 0.0725806
510 2 0.0456116 0.127638 0.0725806
511 1 0.0483871 0.241935 0.0725806
512 2 0.0511625 0.259459 0.0725806
513 2 0.0456116 0.224412 0.0725806
514 1 0.0483871 0.33871 0.0725806
515 2 0.0511625 0.356233 0.0725806
516 2 0.0456116 0.321186 0.0725806
517 1 0.0483871 0.435484 0.0725806
518 2 0.0511625 0.453007 0.0725806
519 2 0.0456116 0.41796 0.0725806
520 1 0.0483871 0.532258 0.0725806
521 2 0.0511625 0.549782 0.0725806
522 2 0.0456116 0.514735 0.0725806
523 1 0.0483871 0.629032 0.0725806
524 2 0.0511625 0.646556 0.0725806
525 2 0.0456116 0.611509 0.0725806
526 1 0.0483871 0.725806 0.0725806
527 2 0.0511625 0.74333 0.0725806
528 2 0.0456116 0.708283 0.0725806
529 1 0.0483871 0.822581 0.0725806
530 2 0.0511625 0.840104 0.0725806
531 2 0.0456116 0.805057 0.0725806
532 1 0.0483871 0.919355 0.0725806
533 2 0.0511625 0.936878 0.0725806
534 2 0.0456116 0.901831 0.0725806
535 1 0.145161 0.0483871 0.0725806
536 2 0.147937 0.0659106 0.0725806
537 2 0.142386 0.0308636 0.0725806
538 1 0.145161 0.145161 0.0725806
539 2 0.147937 0.162685 0.0725806
540 2 0.142386 0.127638 0.0725806
541 1 0.145161 0.241935 0.0725806
542 2 0.147937 0.259459 0.0725806
543 2 0.142386 0.224412 0.0725806
544 1 0.145161 0.33871 0.0725806
545 2 0.147937 0.356233 0.0725806
546 2 0.142386 0.321186 0.0725806
547 1 0.145161 0.435484 0.0725806
548 2 0.147937 0.453007 0.0725806
549 2 0.142386 0.41796 0.0725806
550 1 0.145161 0.532258 0.0725806
551 2 0.147937 0.549782 0.0725806
552 2 0.142386 0.514735 0.0725806
553 1 0.145161 0.629032 0.0725806
554 2 0.147937 0.646556 0.0725806
555 2 0.142386 0.611509 0.0725806
556 1 0.145161 0.725806 0.0725806
557 2 0.147937 0.74333 0.0725806
558 2 0.142386 0.708283 0.0725806
559 1 0.145161 0.822581 0.0725806
560 2 0.147937 0.840104 0.0725806
561 2 0.142386 0.805057 0.0725806
562 1 0.145161 0.919355 0.0725806
563 2 0.147937 0.936878 0.0725806
564 2 0.142386 0.901831 0.0725806
565 1 0.241935 0.0483871 0.0725806
566 2 0.244711 0.0659106 0.0725806
567 2 0.23916 0.0308636 0.0725806
568 1 0.241935 0.145161 0.0725806
569 2 0.244711 0.162685 0.0725806
570 2 0.23916 0.127638 0.0725806
571 1 0.241935 0.241935 0.0725806
572 2 0.244711 0.259459 0.0725806
573 2 0.23916 0.224412 0.0725806
574 1 0.241935 0.33871 0.0725806
575 2 0.244711 0.356233 0.0725806
576 2 0.23916 0.321186 0.0725806
577 1 0.241935 0.435484 0.0725806
578 2 0.244711 0.453007 0.0725806
579 2 0.23916 0.41796 0.0725806
580 1 0.241935 0.532258 0.0725806
581 2 0.244711 0.549782 0.0725806
582 2 0.23916 0.514735 0.0725806
583 1 0.241935 0.629032 0.0725806
584 2 0.244711 0.646556 0.0725806
585 2 0.23916 0.611509 0.0725806
586 1 0.241935 0.725806 0.0725806
587 2 0.244711 0.74333 0.0725806
588 2 0.23916 0.708283 0.0725806
589 1 0.241935 0.822581 0.0725806
590 2 0.244711 0.840104 0.0725806
591 2 0.23916 0.805057 0.0725806
592 1 0.241935 0.919355 0.0725806
593 2 0.244711 0.936878 0.0725806
594 2 0.23916 0.901831 0.0725806
595 1 0.33871 0.0483871 0.0725806
596 2 0.341485 0.0659106 0.0725806
597 2 0.335934 0.0308636 0.0725806
598 1 0.33871 0.145161 0.0725806
599 2 0.341485 0.162685 0.0725806
600 2 0.335934 0.127638 0.0725806
601 1 0.33871 0.241935 0.0725806
602 2 0.341485 0.259459 0.0725806
603 2 0.335934 0.224412 0.0725806
604 1 0.33871 0.33871 0.0725806
605 2 0.341485 0.356233 0.0725806
606 2 0.335934 0.321186 0.0725806
607 1 0.33871 0.435484 0.0725806
608 2 0.341485 0.453007 0.0725806
609 2 0.335934 0.41796 0.0725806
610 1 0.33871 0.532258 0.0725806
611 2 0.341485 0.549782 0.0725806
612 2 0.335934 0.514735 0.0725806
613 1 0.33871 0.629032 0.0725806
614 2 0.341485 0.646556 0.0725806
615 2 0.335934 0.611509 0.0725806
616 1 0.33871 0.725806 0.0725806
617 2 0.341485 0.74333 0.0725806
618 2 0.335934 0.708283 0.0725806
619 1 0.33871 0.822581 0.0725806
620 2 0.341485 0.840104 0.0725806
621 2 0.335934 0.805057 0.0725806
622 1 0.33871 0.919355 0.0725806
623 2 0.341485 0.936878 0.0725806
624 2 0.335934 0.901831 0.0725806
625 1 0.435484 0.0483871 0.0725806
626 2 0.438259 0.0659106 0.0725806
627 2 0.432708 0.0308636 0.0725806
628 1 0.435484 0.145161 0.0725806
629 2 0.438259 0.162685 0.0725806
630 2 0.432708 0.127638 0.0725806
631 1 0.435484 0.241935 0.0725806
632 2 0.438259 0.259459 0.0725806
633 2 0.432708 0.224412 0.0725806
634 1 0.435484 0.33871 0.0725806
635 2 0.438259 0.356233 0.0725806
636 2 0.432708 0.321186 0.0725806
637 1 0.435484 0.435484 0.0725806
638 2 0.438259 0.453007 0.0725806
639 2 0.432708 0.41796 0.0725806
640 1 0.435484 0.532258 0.0725806
641 2 0.438259 0.549782 0.0725806
642 2 0.432708 0.514735 0.0725806
643 1 0.435484 0.629032 0.0725806
644 2 0.438259 0.646556 0.0725806
645 2 0.432708 0.611509 0.0725806
646 1 0.435484 0.725806 0.0725806
647 2 0.438259 0.74333 0.0725806
648 2 0.432708 0.708283 0.0725806
649 1 0.435484 0.822581 0.0725806
650 2 0.438259 0.840104 0.0725806
651 2 0.432708 0.805057 0.0725806
652 1 0.435484 0.919355 0.0725806
653 2 0.438259 0.936878 0.0725806
654 2 0.432708 0.901831 0.0725806
655 1 0.532258 0.0483871 0.0725806
656 2 0.535034 0.0659106 0.0725806
657 2 0.529483 0.0308636 0.0725806
658 1 0.532258 0.145161 0.0725806
659 2 0.535034 0.162685 0.0725806
660 2 0.529483 0.127638 0.0725806
661 1 0.532258 0.241935 0.0725806
662 2 0.535034 0.259459 0.0725806
663 2 0.529483 0.224412 0.0725806
664 1 0.532258 0.33871 0.0725806
665 2 0.535034 0.356233 0.0725806
666 2 0.529483 0.321186 0.0725806
667 1 0.532258 0.435484 0.0725806
668 2 0.535034 0.453007 0.0725806
669 2 0.529483 0.41796 0.0725806
670 1 0.532258 0.532258 0.0725806
671 2 0.535034 0.549782 0.0725806
672 2 0.529483 0.514735 0.0725806
673 1 0.532258 0.629032 0.0725806
674 2 0.535034 0.646556 0.0725806
675 2 0.529483 0.611509 0.0725806
676 1 0.532258 0.725806 0.0725806
677 2 0.535034 0.74333 0.0725806
678 2 0.529483 0.708283 0.0725806
679 1 0.532258 0.822581 0.0725806
680 2 0.535034 0.840104 0.0725806
681 2 0.529483 0.805057 0.0725806
682 1 0.532258 0.919355 0.0725806
683 2 0.535034 0.936878 0.0725806
684 2 0.529483 0.901831 0.0725806
685 1 0.629032 0.0483871 0.0725806
686 2 0.631808 0.0659106 0.0725806
687 2 0.626257 0.0308636 0.0725806
688 1 0.629032 0.145161 0.0725806
689 2 0.631808 0.162685 0.0725806
690 2 0.626257 0.127638 0.0725806
691 1 0.629032 0.241935 0.0725806
692 2 0.631808 0.259459 0.0725806
693 2 0.626257 0.224412 0.0725806
694 1 0.629032 0.33871 0.0725806
695 2 0.631808 0.356233 0.0725806
696 2 0.626257 0.321186 0.0725806
697 1 0.629032 0.435484 0.0725806
698 2 0.631808 0.453007 0.0725806
699 2 0.626257 0.41796 0.0725806
700 1 0.629032 0.532258 0.0725806
701 2 0.631808 0.549782 0.0725806
702 2 0.626257 0.514735 0.0725806
703 1 0.629032 0.629032 0.0725806
704 2 0.631808 0.646556 0.0725806
705 2 0.626257 0.611509 0.0725806
706 1 0.629032 0.725806 0.0725806
707 2 0.631808 0.74333 0.0725806
708 2 0.626257 0.708283 0.0725806
709 1 0.629032 0.822581 0.0725806
710 2 0.631808 0.840104 0.0725806
711 2 0.626257 0.805057 0.0725806
712 1 0.629032 0.919355 0.0725806
713 2 0.631808 0.936878 0.0725806
714 2 0.626257 0.901831 0.0725806
715 1 0.725806 0.0483871 0.0725806
716 2 0.728582 0.0659106 0.0725806
717 2 0.723031 0.0308636 0.0725806
718 1 0.725806 0.145161 0.0725806
719 2 0.728582 0.162685 0.0725806
720 2 0.723031 0.127638 0.0725806
721 1 0.725806 0.241935 0.0725806
722 2 0.728582 0.259459 0.0725806
723 2 0.723031 0.224412 0.0725806
724 1 0.725806 0.33871 0.0725806
725 2 0.728582 0.356233 0.0725806
726 2 0.723031 0.321186 0.0725806
727 1 0.725806 0.435484 0.0725806
728 2 0.728582 0.453007 0.0725806
729 2 0.723031 0.41796 0.0725806
730 1 0.725806 0.532258 0.0725806
731 2 0.728582 0.549782 0.0725806
732 2 0.723031 0.514735 0.0725806
733 1 0.725806 0.629032 0.0725806
734 2 0.728582 0.646556 0.0725806
735 2 0.723031 0.611509 0.0725806
736 1 0.725806 0.725806 0.0725806
737 2 0.728582 0.74333 0.0725806
738 2 0.723031 0.708283 0.0725806
739 1 0.725806 0.822581 0.0725806
740 2 0.728582 0.840104 0.0725806
741 2 0.723031 0.805057 0.0725806
742 1 0.725806 0.919355 0.0725806
743 2 0.728582 0.936878 0.0725806
744 2 0.723031 0.901831 0.0725806
745 1 0.822581 0.0483871 0.0725806
746 2 0.825356 0.0659106 0.0725806
747 2 0.819805 0.0308636 0.0725806
748 1 0.822581 0.145161 0.0725806
749 2 0.825356 0.162685 0.0725806
750 2 0.819805 0.127638 0.0725806
751 1 0.822581 0.241935 0.0725806
752 2 0.825356 0.259459 0.0725806
753 2 0.819805 0.224412 0.0725806
754 1 0.822581 0.33871 0.0725806
755 2 0.825356 0.356233 0.0725806
756 2 0.819805 0.321186 0.0725806
757 1 0.822581 0.435484 0.0725806
758 2 0.825356 0.453007 0.0725806
759 2 0.819805 0.41796 0.0725806
760 1 0.822581 0.532258 0.0725806
761 2 0.825356 0.549782 0.0725806
762 2 0.819805 0.514735 0.0725806
763 1 0.822581 0.629032 0.0725806
764 2 0.825356 0.646556 0.0725806
765 2 0.819805 0.611509 0.0725806
766 1 0.822581 0.725806 0.0725806
767 2 0.825356 0.74333 0.0725806
768 2 0.819805 0.708283 0.0725806
769 1 0.822581 0.822581 0.0725806
770 2 0.825356 0.840104 0.0725806
771 2 0.819805 0.805057 0.0725806
772 1 0.822581 0.919355 0.0725806
773 2 0.825356 0.936878 0.0725806
774 2 0.819805 0.901831 0.0725806
775 1 0.919355 0.0483871 0.0725806
776 2 0.92213 0.0659106 0.0725806
777 2 0.916579 0.0308636 0.0725806
778 1 0.919355 0.145161 0.0725806
779 2 0.92213 0.162685 0.0725806
780 2 0.916579 0.127638 0.0725806
781 1 0.919355 0.241935 0.0725806
782 2 0.92213 0.259459 0.0725806
783 2 0.916579 0.224412 0.0725806
784 1 0.919355 0.33871 0.0725806
785 2 0.92213 0.356233 0.0725806
786 2 0.916579 0.321186 0.0725806
787 1 0.919355 0.435484 0.0725806
788 2 0.92213 0.453007 0.0725806
789 2 0.916579 0.41796 0.0725806
790 1 0.919355 0.532258 0.0725806
791 2 0.92213 0.549782 0.0725806
792 2 0.916579 0.514735 0.0725806
793 1 0.919355 0.629032 0.0725806
794 2 0.92213 0.646556 0.0725806
795 2 0.916579 0.611509 0.0725806
796 1 0.919355 0.725806 0.0725806
797 2 0.92213 0.74333 0.0725806
798 2 0.916579 0.708283 0.0725806
799 1 0.919355 0.822581 0.0725806
800 2 0.92213 0.840104 0.0725806
801 2 0.916579 0.805057 0.0725806
802 1 0.919355 0.919355 0.0725806
803 2 0.92213 0.936878 0.0725806
804 2 0.916579 0.901831 0.0725806
805 1 0.0483871 0.0483871 0.120968
806 2 0.0511625 0.0659106 0.120968
807 2 0.0456116 0.0308636 0.120968
808 1 0.0483871 0.145161 0.120968
809 2 0.0511625 0.162685 0.120968
810 2 0.0456116 0.127638 0.120968
811 1 0.0483871 0.241935 0.120968
812 2 0.0511625 0.259459 0.120968
813 2 0.0456116 0.224412 0.120968
814 1 0.0483871 0.33871 0.120968
815 2 0.0511625 0.356233 0.120968
816 2 0.0456116 0.321186 0.120968
817 1 0.0483871 0.435484 0.120968
818 2 0.0511625 0.453007 0.120968
819 2 0.0456116 0.41796 0.120968
820 1 0.0483871 0.532258 0.120968
821 2 0.0511625 0.549782 0.120968
822 2 0.0456116 0.514735 0.120968
823 1 0.0483871 0.629032 0.120968
824 2 0.0511625 0.646556 0.120968
825 2 0.0456116 0.611509 0.120968
826 1 0.0483871 0.725806 0.120968
827 2 0.0511625 0.74333 0.120968
828 2 0.0456116 0.708283 0.120968
829 1 0.0483871 0.822581 0.120968
830 2 0.0511625 0.840104 0.120968
831 2 0.0456116 0.805057 0.120968
832 1 0.0483871 0.919355 0.120968
833 2 0.0511625 0.936878 0.120968
834 2 0.0456116 0.901831 0.120968
835 1 0.145161 0.0483871 0.120968
836 2 0.147937 0.0659106 0.120968
837 2 0.142386 0.0308636 0.120968
838 1 0.145161 0.145161 0.120968
839 2 0.147937 0.162685 0.120968
840 2 0.142386 0.127638 0.120968
841 1 0.145161 0.241935 0.120968
842 2 0.147937 0.259459 0.120968
843 2 0.142386 0.224412 0.120968
844 1 0.145161 0.33871 0.120968
845 2 0.147937 0.356233 0.120968
846 2 0.142386 0.321186 0.120968
847 1 0.145161 0.435484 0.120968
848 2 0.147937 0.453007 0.120968
849 2 0.142386 0.41796 0.120968
850 1 0.145161 0.532258 0.120968
851 2 0.147937 0.549782 0.120968
852 2 0.142386 0.514735 0.120968
853 1 0.145161 0.629032 0.120968
854 2 0.147937 0.646556 0.120968
855 2 0.142386 0.611509 0.120968
856 1 0.145161 0.725806 0.120968
857 2 0.147937 0.74333 0.120968
858 2 0.142386 0.708283 0.120968
859 1 0.145161 0.822581 0.120968
860 2 0.147937 0.840104 0.120968
861 2 0.142386 0.805057 0.120968
862 1 0.145161 0.919355 0.120968
863 2 0.147937 0.936878 0.120968
864 2 0.142386 0.901831 0.120968
865 1 0.241935 0.0483871 0.120968